# vtk DataFile Version 3.0
#This file was generated by the deal.II library on 2017/7/21 at 23:46:53
ASCII
DATASET UNSTRUCTURED_GRID

POINTS 12288 double
0 5000 0
490.086 4975.92 0
0 1.15514e+06 0
113223 1.14957e+06 0
0 4975.92 490.086
493.561 4952.02 483.674
0 1.14957e+06 113223
113950 1.14406e+06 111717
490.086 4975.92 0
975.452 4903.93 0
113223 1.14957e+06 0
225356 1.13294e+06 0
493.561 4952.02 483.674
982.177 4879.76 472.536
113950 1.14406e+06 111717
226764 1.12739e+06 109121
0 1.15514e+06 0
113223 1.14957e+06 0
0 1.18022e+06 0
115681 1.17453e+06 0
0 1.14957e+06 113223
113950 1.14406e+06 111717
0 1.17453e+06 115681
116425 1.1689e+06 114142
113223 1.14957e+06 0
225356 1.13294e+06 0
115681 1.17453e+06 0
230249 1.15754e+06 0
113950 1.14406e+06 111717
226764 1.12739e+06 109121
116425 1.1689e+06 114142
231685 1.15187e+06 111489
0 4975.92 490.086
493.561 4952.02 483.674
0 1.14957e+06 113223
113950 1.14406e+06 111717
0 4903.93 975.452
492.447 4881.65 962.828
0 1.13294e+06 225356
113623 1.12782e+06 222390
493.561 4952.02 483.674
982.177 4879.76 472.536
113950 1.14406e+06 111717
226764 1.12739e+06 109121
492.447 4881.65 962.828
980.105 4811.88 940.839
113623 1.12782e+06 222390
226143 1.11175e+06 217266
0 1.14957e+06 113223
113950 1.14406e+06 111717
0 1.17453e+06 115681
116425 1.1689e+06 114142
0 1.13294e+06 225356
113623 1.12782e+06 222390
0 1.15754e+06 230249
116087 1.1523e+06 227217
113950 1.14406e+06 111717
226764 1.12739e+06 109121
116425 1.1689e+06 114142
231685 1.15187e+06 111489
113623 1.12782e+06 222390
226143 1.11175e+06 217266
116087 1.1523e+06 227217
231048 1.13589e+06 221981
975.452 4903.93 0
1451.42 4784.7 0
225356 1.13294e+06 0
335318 1.1054e+06 0
982.177 4879.76 472.536
1460.19 4760.16 456.871
226764 1.12739e+06 109121
337148 1.09979e+06 105489
1451.42 4784.7 0
1913.42 4619.4 0
335318 1.1054e+06 0
442051 1.06721e+06 0
1460.19 4760.16 456.871
1923.79 4594.37 436.774
337148 1.09979e+06 105489
444213 1.06153e+06 100834
225356 1.13294e+06 0
335318 1.1054e+06 0
230249 1.15754e+06 0
342598 1.1294e+06 0
226764 1.12739e+06 109121
337148 1.09979e+06 105489
231685 1.15187e+06 111489
344469 1.12367e+06 107778
335318 1.1054e+06 0
442051 1.06721e+06 0
342598 1.1294e+06 0
451649 1.09038e+06 0
337148 1.09979e+06 105489
444213 1.06153e+06 100834
344469 1.12367e+06 107778
453854 1.08458e+06 103022
982.177 4879.76 472.536
1460.19 4760.16 456.871
226764 1.12739e+06 109121
337148 1.09979e+06 105489
980.105 4811.88 940.839
1456.8 4695.72 909.919
226143 1.11175e+06 217266
336183 1.08498e+06 210095
1460.19 4760.16 456.871
1923.79 4594.37 436.774
337148 1.09979e+06 105489
444213 1.06153e+06 100834
1456.8 4695.72 909.919
1919.42 4534.16 870.203
336183 1.08498e+06 210095
442978 1.04774e+06 200897
226764 1.12739e+06 109121
337148 1.09979e+06 105489
231685 1.15187e+06 111489
344469 1.12367e+06 107778
226143 1.11175e+06 217266
336183 1.08498e+06 210095
231048 1.13589e+06 221981
343476 1.10854e+06 214655
337148 1.09979e+06 105489
444213 1.06153e+06 100834
344469 1.12367e+06 107778
453854 1.08458e+06 103022
336183 1.08498e+06 210095
442978 1.04774e+06 200897
343476 1.10854e+06 214655
452588 1.07049e+06 205257
0 1.18022e+06 0
115681 1.17453e+06 0
0 1.19817e+06 0
117442 1.19241e+06 0
0 1.17453e+06 115681
116425 1.1689e+06 114142
0 1.19241e+06 117442
118203 1.18669e+06 115881
115681 1.17453e+06 0
230249 1.15754e+06 0
117442 1.19241e+06 0
233752 1.17515e+06 0
116425 1.1689e+06 114142
231685 1.15187e+06 111489
118203 1.18669e+06 115881
235226 1.16939e+06 113189
0 1.19817e+06 0
117442 1.19241e+06 0
0 1.20798e+06 0
118403 1.20217e+06 0
0 1.19241e+06 117442
118203 1.18669e+06 115881
0 1.20217e+06 118403
119176 1.1964e+06 116830
117442 1.19241e+06 0
233752 1.17515e+06 0
118403 1.20217e+06 0
235666 1.18477e+06 0
118203 1.18669e+06 115881
235226 1.16939e+06 113189
119176 1.1964e+06 116830
237160 1.17896e+06 114117
0 1.17453e+06 115681
116425 1.1689e+06 114142
0 1.19241e+06 117442
118203 1.18669e+06 115881
0 1.15754e+06 230249
116087 1.1523e+06 227217
0 1.17515e+06 233752
117869 1.16984e+06 230678
116425 1.1689e+06 114142
231685 1.15187e+06 111489
118203 1.18669e+06 115881
235226 1.16939e+06 113189
116087 1.1523e+06 227217
231048 1.13589e+06 221981
117869 1.16984e+06 230678
234595 1.15317e+06 225365
0 1.19241e+06 117442
118203 1.18669e+06 115881
0 1.20217e+06 118403
119176 1.1964e+06 116830
0 1.17515e+06 233752
117869 1.16984e+06 230678
0 1.18477e+06 235666
118842 1.17941e+06 232568
118203 1.18669e+06 115881
235226 1.16939e+06 113189
119176 1.1964e+06 116830
237160 1.17896e+06 114117
117869 1.16984e+06 230678
234595 1.15317e+06 225365
118842 1.17941e+06 232568
236531 1.1626e+06 227213
230249 1.15754e+06 0
342598 1.1294e+06 0
233752 1.17515e+06 0
347812 1.14658e+06 0
231685 1.15187e+06 111489
344469 1.12367e+06 107778
235226 1.16939e+06 113189
349714 1.14077e+06 109420
342598 1.1294e+06 0
451649 1.09038e+06 0
347812 1.14658e+06 0
458522 1.10697e+06 0
344469 1.12367e+06 107778
453854 1.08458e+06 103022
349714 1.14077e+06 109420
460759 1.10108e+06 104590
233752 1.17515e+06 0
347812 1.14658e+06 0
235666 1.18477e+06 0
350659 1.15597e+06 0
235226 1.16939e+06 113189
349714 1.14077e+06 109420
237160 1.17896e+06 114117
352584 1.1501e+06 110316
347812 1.14658e+06 0
458522 1.10697e+06 0
350659 1.15597e+06 0
462275 1.11603e+06 0
349714 1.14077e+06 109420
460759 1.10108e+06 104590
352584 1.1501e+06 110316
464530 1.1101e+06 105446
231685 1.15187e+06 111489
344469 1.12367e+06 107778
235226 1.16939e+06 113189
349714 1.14077e+06 109420
231048 1.13589e+06 221981
343476 1.10854e+06 214655
234595 1.15317e+06 225365
348716 1.1254e+06 217923
344469 1.12367e+06 107778
453854 1.08458e+06 103022
349714 1.14077e+06 109420
460759 1.10108e+06 104590
343476 1.10854e+06 214655
452588 1.07049e+06 205257
348716 1.1254e+06 217923
459473 1.08678e+06 208379
235226 1.16939e+06 113189
349714 1.14077e+06 109420
237160 1.17896e+06 114117
352584 1.1501e+06 110316
234595 1.15317e+06 225365
348716 1.1254e+06 217923
236531 1.1626e+06 227213
351578 1.13461e+06 219708
349714 1.14077e+06 109420
460759 1.10108e+06 104590
352584 1.1501e+06 110316
464530 1.1101e+06 105446
348716 1.1254e+06 217923
459473 1.08678e+06 208379
351578 1.13461e+06 219708
463233 1.09567e+06 210085
0 4903.93 975.452
492.447 4881.65 962.828
0 1.13294e+06 225356
113623 1.12782e+06 222390
0 4784.7 1451.42
487.259 4765.5 1432.69
0 1.1054e+06 335318
112376 1.101e+06 330916
492.447 4881.65 962.828
980.105 4811.88 940.839
113623 1.12782e+06 222390
226143 1.11175e+06 217266
487.259 4765.5 1432.69
969.752 4700.91 1400.36
112376 1.101e+06 330916
223659 1.08616e+06 323386
0 1.13294e+06 225356
113623 1.12782e+06 222390
0 1.15754e+06 230249
116087 1.1523e+06 227217
0 1.1054e+06 335318
112376 1.101e+06 330916
0 1.1294e+06 342598
114814 1.12491e+06 338101
113623 1.12782e+06 222390
226143 1.11175e+06 217266
116087 1.1523e+06 227217
231048 1.13589e+06 221981
112376 1.101e+06 330916
223659 1.08616e+06 323386
114814 1.12491e+06 338101
228509 1.10974e+06 330405
0 4784.7 1451.42
487.259 4765.5 1432.69
0 1.1054e+06 335318
112376 1.101e+06 330916
0 4619.4 1913.42
477.549 4604.73 1889.03
0 1.06721e+06 442051
110090 1.06388e+06 436323
487.259 4765.5 1432.69
969.752 4700.91 1400.36
112376 1.101e+06 330916
223659 1.08616e+06 323386
477.549 4604.73 1889.03
950.726 4547.9 1847.35
110090 1.06388e+06 436323
219177 1.05086e+06 426616
0 1.1054e+06 335318
112376 1.101e+06 330916
0 1.1294e+06 342598
114814 1.12491e+06 338101
0 1.06721e+06 442051
110090 1.06388e+06 436323
0 1.09038e+06 451649
112477 1.08698e+06 445794
112376 1.101e+06 330916
223659 1.08616e+06 323386
114814 1.12491e+06 338101
228509 1.10974e+06 330405
110090 1.06388e+06 436323
219177 1.05086e+06 426616
112477 1.08698e+06 445794
223928 1.07367e+06 435876
980.105 4811.88 940.839
1456.8 4695.72 909.919
226143 1.11175e+06 217266
336183 1.08498e+06 210095
969.752 4700.91 1400.36
1441.99 4591.78 1355.05
223659 1.08616e+06 323386
332601 1.06105e+06 312875
1456.8 4695.72 909.919
1919.42 4534.16 870.203
336183 1.08498e+06 210095
442978 1.04774e+06 200897
1441.99 4591.78 1355.05
1900.35 4439.21 1296.97
332601 1.06105e+06 312875
438355 1.02593e+06 299424
226143 1.11175e+06 217266
336183 1.08498e+06 210095
231048 1.13589e+06 221981
343476 1.10854e+06 214655
223659 1.08616e+06 323386
332601 1.06105e+06 312875
228509 1.10974e+06 330405
339817 1.08409e+06 319666
336183 1.08498e+06 210095
442978 1.04774e+06 200897
343476 1.10854e+06 214655
452588 1.07049e+06 205257
332601 1.06105e+06 312875
438355 1.02593e+06 299424
339817 1.08409e+06 319666
447862 1.04821e+06 305921
969.752 4700.91 1400.36
1441.99 4591.78 1355.05
223659 1.08616e+06 323386
332601 1.06105e+06 312875
950.726 4547.9 1847.35
1415.2 4449.44 1788.76
219177 1.05086e+06 426616
326266 1.02825e+06 413021
1441.99 4591.78 1355.05
1900.35 4439.21 1296.97
332601 1.06105e+06 312875
438355 1.02593e+06 299424
1415.2 4449.44 1788.76
1866.72 4310.25 1713.79
326266 1.02825e+06 413021
430380 996276 395661
223659 1.08616e+06 323386
332601 1.06105e+06 312875
228509 1.10974e+06 330405
339817 1.08409e+06 319666
219177 1.05086e+06 426616
326266 1.02825e+06 413021
223928 1.07367e+06 435876
333338 1.05058e+06 421985
332601 1.06105e+06 312875
438355 1.02593e+06 299424
339817 1.08409e+06 319666
447862 1.04821e+06 305921
326266 1.02825e+06 413021
430380 996276 395661
333338 1.05058e+06 421985
439710 1.01791e+06 404247
0 1.15754e+06 230249
116087 1.1523e+06 227217
0 1.17515e+06 233752
117869 1.16984e+06 230678
0 1.1294e+06 342598
114814 1.12491e+06 338101
0 1.14658e+06 347812
116567 1.14202e+06 343246
116087 1.1523e+06 227217
231048 1.13589e+06 221981
117869 1.16984e+06 230678
234595 1.15317e+06 225365
114814 1.12491e+06 338101
228509 1.10974e+06 330405
116567 1.14202e+06 343246
232000 1.12662e+06 335435
0 1.17515e+06 233752
117869 1.16984e+06 230678
0 1.18477e+06 235666
118842 1.17941e+06 232568
0 1.14658e+06 347812
116567 1.14202e+06 343246
0 1.15597e+06 350659
117527 1.15137e+06 346058
117869 1.16984e+06 230678
234595 1.15317e+06 225365
[...]
POINT_DATA 12288
SCALARS D double 1
LOOKUP_TABLE default
1.00954e+08 1.00954e+08 1.00953e+08 1.00953e+08 1.00954e+08 1.00954e+08 1.00953e+08 1.00953e+08 1.00954e+08 1.00954e+08 1.00953e+08 1.00953e+08 1.00954e+08 1.00954e+08 1.00953e+08 1.00953e+08 1.00953e+08 1.00953e+08 1.00943e+08 1.00943e+08 1.00953e+08 1.00953e+08 1.00943e+08 1.00943e+08 1.00953e+08 1.00953e+08 1.00943e+08 1.00943e+08 1.00953e+08 1.00953e+08 1.00943e+08 1.00943e+08 1.00954e+08 1.00954e+08 1.00953e+08 1.00953e+08 1.00954e+08 1.00954e+08 1.00953e+08 1.00953e+08 1.00954e+08 1.00954e+08 1.00953e+08 1.00953e+08 1.00954e+08 1.00954e+08 1.00953e+08 1.00953e+08 1.00953e+08 1.00953e+08 1.00943e+08 1.00943e+08 1.00953e+08 1.00953e+08 1.00943e+08 1.00943e+08 1.00953e+08 1.00953e+08 1.00943e+08 1.00943e+08 1.00953e+08 1.00953e+08 1.00943e+08 1.00943e+08 1.00954e+08 1.00954e+08 1.00953e+08 1.00953e+08 1.00954e+08 1.00954e+08 1.00953e+08 1.00953e+08 1.00954e+08 1.00954e+08 1.00953e+08 1.00953e+08 1.00954e+08 1.00954e+08 1.00953e+08 1.00953e+08 1.00953e+08 1.00953e+08 1.00943e+08 1.00943e+08 1.00953e+08 1.00953e+08 1.00943e+08 1.00943e+08 1.00953e+08 1.00953e+08 1.00943e+08 1.00943e+08 1.00953e+08 1.00953e+08 1.00943e+08 1.00943e+08 1.00954e+08 1.00954e+08 1.00953e+08 1.00953e+08 1.00954e+08 1.00954e+08 1.00953e+08 1.00953e+08 1.00954e+08 1.00954e+08 1.00953e+08 1.00953e+08 1.00954e+08 1.00954e+08 1.00953e+08 1.00953e+08 1.00953e+08 1.00953e+08 1.00943e+08 1.00943e+08 1.00953e+08 1.00953e+08 1.00943e+08 1.00943e+08 1.00953e+08 1.00953e+08 1.00943e+08 1.00943e+08 1.00953e+08 1.00953e+08 1.00943e+08 1.00943e+08 1.00943e+08 1.00943e+08 1.00894e+08 1.00894e+08 1.00943e+08 1.00943e+08 1.00894e+08 1.00894e+08 1.00943e+08 1.00943e+08 1.00894e+08 1.00893e+08 1.00943e+08 1.00943e+08 1.00894e+08 1.00893e+08 1.00894e+08 1.00894e+08 1.00816e+08 1.00816e+08 1.00894e+08 1.00894e+08 1.00816e+08 1.00816e+08 1.00894e+08 1.00893e+08 1.00816e+08 1.00816e+08 1.00894e+08 1.00893e+08 1.00816e+08 1.00816e+08 1.00943e+08 1.00943e+08 1.00894e+08 1.00894e+08 1.00943e+08 1.00943e+08 1.00894e+08 1.00894e+08 1.00943e+08 1.00943e+08 1.00894e+08 1.00893e+08 1.00943e+08 1.00943e+08 1.00894e+08 1.00893e+08 1.00894e+08 1.00894e+08 1.00816e+08 1.00816e+08 1.00894e+08 1.00894e+08 1.00816e+08 1.00816e+08 1.00894e+08 1.00893e+08 1.00816e+08 1.00816e+08 1.00894e+08 1.00893e+08 1.00816e+08 1.00816e+08 1.00943e+08 1.00943e+08 1.00893e+08 1.00893e+08 1.00943e+08 1.00943e+08 1.00893e+08 1.00893e+08 1.00943e+08 1.00943e+08 1.00893e+08 1.00893e+08 1.00943e+08 1.00943e+08 1.00893e+08 1.00893e+08 1.00893e+08 1.00893e+08 1.00816e+08 1.00815e+08 1.00893e+08 1.00893e+08 1.00816e+08 1.00815e+08 1.00893e+08 1.00893e+08 1.00815e+08 1.00814e+08 1.00893e+08 1.00893e+08 1.00815e+08 1.00814e+08 1.00943e+08 1.00943e+08 1.00893e+08 1.00893e+08 1.00943e+08 1.00943e+08 1.00893e+08 1.00893e+08 1.00943e+08 1.00943e+08 1.00893e+08 1.00893e+08 1.00943e+08 1.00943e+08 1.00893e+08 1.00893e+08 1.00893e+08 1.00893e+08 1.00816e+08 1.00815e+08 1.00893e+08 1.00893e+08 1.00816e+08 1.00815e+08 1.00893e+08 1.00893e+08 1.00815e+08 1.00814e+08 1.00893e+08 1.00893e+08 1.00815e+08 1.00814e+08 1.00954e+08 1.00954e+08 1.00953e+08 1.00953e+08 1.00954e+08 1.00954e+08 1.00953e+08 1.00953e+08 1.00954e+08 1.00954e+08 1.00953e+08 1.00953e+08 1.00954e+08 1.00954e+08 1.00953e+08 1.00953e+08 1.00953e+08 1.00953e+08 1.00943e+08 1.00943e+08 1.00953e+08 1.00953e+08 1.00943e+08 1.00943e+08 1.00953e+08 1.00953e+08 1.00943e+08 1.00943e+08 1.00953e+08 1.00953e+08 1.00943e+08 1.00943e+08 1.00954e+08 1.00954e+08 1.00953e+08 1.00953e+08 1.00954e+08 1.00954e+08 1.00953e+08 1.00953e+08 1.00954e+08 1.00954e+08 1.00953e+08 1.00953e+08 1.00954e+08 1.00954e+08 1.00953e+08 1.00953e+08 1.00953e+08 1.00953e+08 1.00943e+08 1.00943e+08 1.00953e+08 1.00953e+08 1.00943e+08 1.00943e+08 1.00953e+08 1.00953e+08 1.00943e+08 1.00943e+08 1.00953e+08 1.00953e+08 1.00943e+08 1.00943e+08 1.00954e+08 1.00954e+08 1.00953e+08 1.00953e+08 1.00954e+08 1.00954e+08 1.00953e+08 1.00953e+08 1.00954e+08 1.00954e+08 1.00953e+08 1.00953e+08 1.00954e+08 1.00954e+08 1.00953e+08 1.00953e+08 1.00953e+08 1.00953e+08 1.00943e+08 1.00943e+08 1.00953e+08 1.00953e+08 1.00943e+08 1.00943e+08 1.00953e+08 1.00953e+08 1.00943e+08 1.00943e+08 1.00953e+08 1.00953e+08 1.00943e+08 1.00943e+08 1.00954e+08 1.00954e+08 1.00953e+08 1.00953e+08 1.00954e+08 1.00954e+08 1.00953e+08 1.00953e+08 1.00954e+08 1.00954e+08 1.00953e+08 1.00953e+08 1.00954e+08 1.00954e+08 1.00953e+08 1.00953e+08 1.00953e+08 1.00953e+08 1.00943e+08 1.00943e+08 1.00953e+08 1.00953e+08 1.00943e+08 1.00943e+08 1.00953e+08 1.00953e+08 1.00943e+08 1.00943e+08 1.00953e+08 1.00953e+08 1.00943e+08 1.00943e+08 1.00943e+08 1.00943e+08 1.00894e+08 1.00894e+08 1.00943e+08 1.00943e+08 1.00894e+08 1.00893e+08 1.00943e+08 1.00943e+08 1.00894e+08 1.00893e+08 1.00943e+08 1.00943e+08 1.00893e+08 1.00893e+08 1.00894e+08 1.00894e+08 1.00816e+08 1.00816e+08 1.00894e+08 1.00893e+08 1.00816e+08 1.00816e+08 1.00894e+08 1.00893e+08 1.00816e+08 1.00816e+08 1.00893e+08 1.00893e+08 1.00816e+08 1.00815e+08 1.00943e+08 1.00943e+08 1.00894e+08 1.00893e+08 1.00943e+08 1.00943e+08 1.00893e+08 1.00893e+08 1.00943e+08 1.00943e+08 1.00893e+08 1.00893e+08 1.00943e+08 1.00943e+08 1.00893e+08 1.00893e+08 1.00894e+08 1.00893e+08 1.00816e+08 1.00816e+08 1.00893e+08 1.00893e+08 1.00816e+08 1.00816e+08 1.00893e+08 1.00893e+08 1.00816e+08 1.00815e+08 1.00893e+08 1.00893e+08 1.00816e+08 1.00815e+08 1.00943e+08 1.00943e+08 1.00893e+08 1.00893e+08 1.00943e+08 1.00943e+08 1.00893e+08 1.00893e+08 1.00943e+08 1.00943e+08 1.00893e+08 1.00893e+08 1.00943e+08 1.00943e+08 1.00893e+08 1.00893e+08 1.00893e+08 1.00893e+08 1.00816e+08 1.00815e+08 1.00893e+08 1.00893e+08 1.00815e+08 1.00815e+08 1.00893e+08 1.00893e+08 1.00815e+08 1.00814e+08 1.00893e+08 1.00893e+08 1.00815e+08 1.00814e+08 1.00943e+08 1.00943e+08 1.00893e+08 1.00893e+08 1.00943e+08 1.00943e+08 1.00893e+08 1.00893e+08 1.00943e+08 1.00943e+08 1.00893e+08 1.00893e+08 1.00943e+08 1.00943e+08 1.00893e+08 1.00892e+08 1.00893e+08 1.00893e+08 1.00815e+08 1.00815e+08 1.00893e+08 1.00893e+08 1.00815e+08 1.00814e+08 1.00893e+08 1.00893e+08 1.00815e+08 1.00814e+08 1.00893e+08 1.00892e+08 1.00814e+08 1.00814e+08 1.00954e+08 1.00954e+08 1.00953e+08 1.00953e+08 1.00954e+08 1.00954e+08 1.00953e+08 1.00953e+08 1.00954e+08 1.00954e+08 1.00953e+08 1.00953e+08 1.00954e+08 1.00954e+08 1.00953e+08 1.00953e+08 1.00953e+08 1.00953e+08 1.00943e+08 1.00943e+08 1.00953e+08 1.00953e+08 1.00943e+08 1.00943e+08 1.00953e+08 1.00953e+08 1.00943e+08 1.00943e+08 1.00953e+08 1.00953e+08 1.00943e+08 1.00943e+08 1.00954e+08 1.00954e+08 1.00953e+08 1.00953e+08 1.00954e+08 1.00954e+08 1.00953e+08 1.00953e+08 1.00954e+08 1.00954e+08 1.00953e+08 1.00953e+08 1.00954e+08 1.00954e+08 1.00953e+08 1.00953e+08 1.00953e+08 1.00953e+08 1.00943e+08 1.00943e+08 1.00953e+08 1.00953e+08 1.00943e+08 1.00943e+08 1.00953e+08 1.00953e+08 1.00943e+08 1.00943e+08 1.00953e+08 1.00953e+08 1.00943e+08 1.00943e+08 1.00954e+08 1.00954e+08 1.00953e+08 1.00953e+08 1.00954e+08 1.00954e+08 1.00953e+08 1.00953e+08 1.00954e+08 1.00954e+08 1.00953e+08 1.00953e+08 1.00954e+08 1.00954e+08 1.00953e+08 1.00953e+08 1.00953e+08 1.00953e+08 1.00943e+08 1.00943e+08 1.00953e+08 1.00953e+08 1.00943e+08 1.00943e+08 1.00953e+08 1.00953e+08 1.00943e+08 1.00943e+08 1.00953e+08 1.00953e+08 1.00943e+08 1.00943e+08 1.00954e+08 1.00954e+08 1.00953e+08 1.00953e+08 1.00954e+08 1.00954e+08 1.00953e+08 1.00953e+08 1.00954e+08 1.00954e+08 1.00953e+08 1.00953e+08 1.00954e+08 1.00954e+08 1.00953e+08 1.00953e+08 1.00953e+08 1.00953e+08 1.00943e+08 1.00943e+08 1.00953e+08 1.00953e+08 1.00943e+08 1.00943e+08 1.00953e+08 1.00953e+08 1.00943e+08 1.00943e+08 1.00953e+08 1.00953e+08 1.00943e+08 1.00943e+08 1.00943e+08 1.00943e+08 1.00893e+08 1.00892e+08 1.00943e+08 1.00943e+08 1.00893e+08 1.00892e+08 1.00943e+08 1.00943e+08 1.00892e+08 1.00892e+08 1.00943e+08 1.00943e+08 1.00892e+08 1.00892e+08 1.00893e+08 1.00892e+08 1.00814e+08 1.00814e+08 1.00893e+08 1.00892e+08 1.00814e+08 1.00814e+08 1.00892e+08 1.00892e+08 1.00814e+08 1.00813e+08 1.00892e+08 1.00892e+08 1.00814e+08 1.00813e+08 1.00943e+08 1.00943e+08 1.00893e+08 1.00892e+08 1.00943e+08 1.00943e+08 1.00893e+08 1.00892e+08 1.00943e+08 1.00943e+08 1.00892e+08 1.00892e+08 1.00943e+08 1.00943e+08 1.00892e+08 1.00892e+08 1.00893e+08 1.00892e+08 1.00814e+08 1.00814e+08 1.00893e+08 1.00892e+08 1.00814e+08 1.00813e+08 1.00892e+08 1.00892e+08 1.00814e+08 1.00813e+08 1.00892e+08 1.00892e+08 1.00813e+08 1.00812e+08 1.00943e+08 1.00943e+08 1.00892e+08 1.00892e+08 1.00943e+08 1.00943e+08 1.00892e+08 1.00891e+08 1.00943e+08 1.00943e+08 1.00892e+08 1.00891e+08 1.00943e+08 1.00943e+08 1.00891e+08 1.00891e+08 1.00892e+08 1.00892e+08 1.00813e+08 1.00812e+08 1.00892e+08 1.00891e+08 1.00813e+08 1.00812e+08 1.00892e+08 1.00891e+08 1.00812e+08 1.00811e+08 1.00891e+08 1.00891e+08 1.00812e+08 1.00811e+08 1.00943e+08 1.00943e+08 1.00892e+08 1.00891e+08 1.00943e+08 1.00943e+08 1.00892e+08 1.00891e+08 1.00943e+08 1.00943e+08 1.00891e+08 1.00891e+08 1.00943e+08 1.00943e+08 1.00891e+08 1.00891e+08 1.00892e+08 1.00891e+08 1.00813e+08 1.00812e+08 1.00892e+08 1.00891e+08 1.00812e+08 1.00811e+08 1.00891e+08 1.00891e+08 1.00812e+08 1.00811e+08 1.00891e+08 1.00891e+08 1.00811e+08 1.00811e+08 1.00954e+08 1.00954e+08 1.00953e+08 1.00953e+08 1.00954e+08 1.00954e+08 1.00953e+08 1.00953e+08 1.00954e+08 1.00954e+08 1.00953e+08 1.00953e+08 1.00954e+08 1.00954e+08 1.00953e+08 1.00953e+08 1.00953e+08 1.00953e+08 1.00943e+08 1.00943e+08 1.00953e+08 1.00953e+08 1.00943e+08 1.00943e+08 1.00953e+08 1.00953e+08 1.00943e+08 1.00943e+08 1.00953e+08 1.00953e+08 1.00943e+08 1.00943e+08 1.00954e+08 1.00954e+08 1.00953e+08 1.00953e+08 1.00954e+08 1.00954e+08 1.00953e+08 1.00953e+08 1.00954e+08 1.00954e+08 1.00953e+08 1.00953e+08 1.00954e+08 1.00954e+08 1.00953e+08 1.00953e+08 1.00953e+08 1.00953e+08 1.00943e+08 1.00943e+08 1.00953e+08 1.00953e+08 1.00943e+08 1.00943e+08 1.00953e+08 1.00953e+08 1.00943e+08 1.00943e+08 1.00953e+08 1.00953e+08 1.00943e+08 1.00943e+08 1.00954e+08 1.00954e+08 1.00953e+08 1.00953e+08 1.00954e+08 1.00954e+08 1.00953e+08 1.00953e+08 1.00954e+08 1.00954e+08 1.00953e+08 1.00953e+08 1.00954e+08 1.00954e+08 1.00953e+08 1.00953e+08 1.00953e+08 1.00953e+08 1.00943e+08 1.00943e+08 1.00953e+08 1.00953e+08 1.00943e+08 1.00943e+08 1.00953e+08 1.00953e+08 1.00943e+08 1.00943e+08 1.00953e+08 1.00953e+08 1.00943e+08 1.00943e+08 1.00954e+08 1.00954e+08 1.00953e+08 1.00953e+08 1.00954e+08 1.00954e+08 1.00953e+08 1.00953e+08 1.00954e+08 1.00954e+08 1.00953e+08 1.00953e+08 1.00954e+08 1.00954e+08 1.00953e+08 1.00953e+08 1.00953e+08 1.00953e+08 1.00943e+08 1.00943e+08 1.00953e+08 1.00953e+08 1.00943e+08 1.00943e+08 1.00953e+08 1.00953e+08 1.00943e+08 1.00943e+08 1.00953e+08 1.00953e+08 1.00943e+08 1.00943e+08 1.00943e+08 1.00943e+08 1.00893e+08 1.00892e+08 1.00943e+08 1.00943e+08 1.00893e+08 1.00892e+08 1.00943e+08 1.00943e+08 1.00892e+08 1.00892e+08 1.00943e+08 1.00943e+08 1.00892e+08 1.00892e+08 1.00893e+08 1.00892e+08 1.00814e+08 1.00813e+08 1.00893e+08 1.00892e+08 1.00814e+08 1.00813e+08 1.00892e+08 1.00892e+08 1.00813e+08 1.00812e+08 1.00892e+08 1.00892e+08 1.00813e+08 1.00812e+08 1.00943e+08 1.00943e+08 1.00893e+08 1.00892e+08 1.00943e+08 1.00943e+08 1.00892e+08 1.00892e+08 1.00943e+08 1.00943e+08 1.00892e+08 1.00892e+08 1.00943e+08 1.00943e+08 1.00892e+08 1.00891e+08 1.00893e+08 1.00892e+08 1.00814e+08 1.00813e+08 1.00892e+08 1.00892e+08 1.00814e+08 1.00812e+08 1.00892e+08 1.00892e+08 1.00813e+08 1.00812e+08 1.00892e+08 1.00891e+08 1.00812e+08 1.00812e+08 1.00943e+08 1.00943e+08 1.00892e+08 1.00891e+08 1.00943e+08 1.00943e+08 1.00892e+08 1.00891e+08 1.00943e+08 1.00943e+08 1.00891e+08 1.00891e+08 1.00943e+08 1.00943e+08 1.00891e+08 1.00891e+08 1.00892e+08 1.00891e+08 1.00812e+08 1.00811e+08 1.00892e+08 1.00891e+08 1.00812e+08 1.00811e+08 1.00891e+08 1.00891e+08 1.00811e+08 1.00811e+08 1.00891e+08 1.00891e+08 1.00811e+08 1.00811e+08 1.00943e+08 1.00943e+08 1.00892e+08 1.00891e+08 1.00943e+08 1.00943e+08 1.00891e+08 1.00891e+08 1.00943e+08 1.00943e+08 1.00891e+08 1.00891e+08 1.00943e+08 1.00943e+08 1.00891e+08 1.00891e+08 1.00892e+08 1.00891e+08 1.00812e+08 1.00811e+08 1.00891e+08 1.00891e+08 1.00812e+08 1.00811e+08 1.00891e+08 1.00891e+08 1.00811e+08 1.00811e+08 1.00891e+08 1.00891e+08 1.00811e+08 1.0081e+08 1.00816e+08 1.00816e+08 1.00632e+08 1.00631e+08 1.00816e+08 1.00816e+08 1.00632e+08 1.00631e+08 1.00816e+08 1.00816e+08 1.00631e+08 1.0063e+08 1.00816e+08 1.00816e+08 1.00631e+08 1.0063e+08 1.00632e+08 1.00631e+08 1.00251e+08 1.0025e+08 1.00632e+08 1.00631e+08 1.00252e+08 1.00251e+08 1.00631e+08 1.0063e+08 1.0025e+08 1.00248e+08 1.00631e+08 1.0063e+08 1.00251e+08 1.00249e+08 1.00816e+08 1.00816e+08 1.00632e+08 1.00631e+08 1.00816e+08 1.00816e+08 1.00632e+08 1.00631e+08 1.00816e+08 1.00816e+08 1.00631e+08 1.0063e+08 1.00816e+08 1.00816e+08 1.00631e+08 1.0063e+08 1.00632e+08 1.00631e+08 1.00252e+08 1.00251e+08 1.00632e+08 1.00631e+08 1.00252e+08 1.00251e+08 1.00631e+08 1.0063e+08 1.00251e+08 1.00249e+08 1.00631e+08 1.0063e+08 1.00251e+08 1.00249e+08 1.00816e+08 1.00815e+08 1.0063e+08 1.00629e+08 1.00816e+08 1.00815e+08 1.0063e+08 1.00629e+08 1.00815e+08 1.00814e+08 1.00629e+08 1.00628e+08 1.00815e+08 1.00814e+08 1.00629e+08 1.00628e+08 1.0063e+08 1.00629e+08 1.00248e+08 1.00246e+08 1.0063e+08 1.00629e+08 1.00249e+08 1.00246e+08 1.00629e+08 1.00628e+08 1.00246e+08 1.00243e+08 1.00629e+08 1.00628e+08 1.00246e+08 1.00243e+08 1.00816e+08 1.00815e+08 1.0063e+08 1.00629e+08 1.00816e+08 1.00815e+08 1.0063e+08 1.00629e+08 1.00815e+08 1.00814e+08 1.00629e+08 1.00628e+08 1.00815e+08 1.00814e+08 1.00629e+08 1.00627e+08 1.0063e+08 1.00629e+08 1.00249e+08 1.00246e+08 1.0063e+08 1.00629e+08 1.00249e+08 1.00246e+08 1.00629e+08 1.00628e+08 1.00246e+08 1.00243e+08 1.00629e+08 1.00627e+08 1.00246e+08 1.00242e+08 1.00251e+08 1.0025e+08 9.96587e+07 9.96566e+07 1.00252e+08 1.00251e+08 9.96598e+07 9.96577e+07 1.0025e+08 1.00248e+08 9.96566e+07 9.96526e+07 1.00251e+08 1.00249e+08 9.96577e+07 9.96535e+07 9.96587e+07 9.96566e+07 9.88234e+07 9.88184e+07 9.96598e+07 9.96577e+07 9.88259e+07 9.88212e+07 9.96566e+07 9.96526e+07 9.88184e+07 9.88098e+07 9.96577e+07 9.96535e+07 9.88212e+07 9.88119e+07 1.00252e+08 1.00251e+08 9.96598e+07 9.96577e+07 1.00252e+08 1.00251e+08 9.96594e+07 9.96572e+07 1.00251e+08 1.00249e+08 9.96577e+07 9.96535e+07 1.00251e+08 1.00249e+08 9.96572e+07 9.96528e+07 9.96598e+07 9.96577e+07 9.88259e+07 9.88212e+07 9.96594e+07 9.96572e+07 9.8825e+07 9.88202e+07 9.96577e+07 9.96535e+07 9.88212e+07 9.88119e+07 9.96572e+07 9.96528e+07 9.88202e+07 9.88105e+07 1.00248e+08 1.00246e+08 9.96526e+07 9.96472e+07 1.00249e+08 1.00246e+08 9.96535e+07 9.96481e+07 1.00246e+08 1.00243e+08 9.96472e+07 9.96406e+07 1.00246e+08 1.00243e+08 9.96481e+07 9.96403e+07 9.96526e+07 9.96472e+07 9.88098e+07 9.87979e+07 9.96535e+07 9.96481e+07 9.88119e+07 9.88001e+07 9.96472e+07 9.96406e+07 9.87979e+07 9.87831e+07 9.96481e+07 9.96403e+07 9.88001e+07 9.87823e+07 1.00249e+08 1.00246e+08 9.96535e+07 9.96481e+07 1.00249e+08 1.00246e+08 9.96528e+07 9.96477e+07 1.00246e+08 1.00243e+08 9.96481e+07 9.96403e+07 1.00246e+08 1.00242e+08 9.96477e+07 9.96389e+07 9.96535e+07 9.96481e+07 9.88119e+07 9.88001e+07 9.96528e+07 9.96477e+07 9.88105e+07 9.87993e+07 9.96481e+07 9.96403e+07 9.88001e+07 9.87823e+07 9.96477e+07 9.96389e+07 9.87993e+07 9.87791e+07 1.00816e+08 1.00816e+08 1.00632e+08 1.00631e+08 1.00816e+08 1.00816e+08 1.00631e+08 1.00631e+08 1.00816e+08 1.00816e+08 1.00631e+08 1.0063e+08 1.00816e+08 1.00815e+08 1.00631e+08 1.0063e+08 1.00632e+08 1.00631e+08 1.00252e+08 1.00251e+08 1.00631e+08 1.00631e+08 1.00251e+08 1.0025e+08 1.00631e+08 1.0063e+08 1.00251e+08 1.00249e+08 1.00631e+08 1.0063e+08 1.0025e+08 1.00248e+08 1.00816e+08 1.00816e+08 1.00631e+08 1.00631e+08 1.00816e+08 1.00816e+08 1.0063e+08 1.0063e+08 1.00816e+08 1.00815e+08 1.00631e+08 1.0063e+08 1.00816e+08 1.00815e+08 1.0063e+08 1.00629e+08 1.00631e+08 1.00631e+08 1.00251e+08 1.0025e+08 1.0063e+08 1.0063e+08 1.00249e+08 1.00248e+08 1.00631e+08 1.0063e+08 1.0025e+08 1.00248e+08 1.0063e+08 1.00629e+08 1.00248e+08 1.00246e+08 1.00816e+08 1.00815e+08 1.0063e+08 1.00629e+08 1.00815e+08 1.00815e+08 1.0063e+08 1.00629e+08 1.00815e+08 1.00814e+08 1.00629e+08 1.00627e+08 1.00815e+08 1.00814e+08 1.00629e+08 1.00627e+08 1.0063e+08 1.00629e+08 1.00249e+08 1.00246e+08 1.0063e+08 1.00629e+08 1.00248e+08 1.00245e+08 1.00629e+08 1.00627e+08 1.00246e+08 1.00242e+08 1.00629e+08 1.00627e+08 1.00245e+08 1.00241e+08 1.00815e+08 1.00815e+08 1.0063e+08 1.00629e+08 1.00815e+08 1.00814e+08 1.00629e+08 1.00628e+08 1.00815e+08 1.00814e+08 1.00629e+08 1.00627e+08 1.00814e+08 1.00814e+08 1.00628e+08 1.00626e+08 1.0063e+08 1.00629e+08 1.00248e+08 1.00245e+08 1.00629e+08 1.00628e+08 1.00246e+08 1.00243e+08 1.00629e+08 1.00627e+08 1.00245e+08 1.00241e+08 1.00628e+08 1.00626e+08 1.00243e+08 1.00239e+08 1.00252e+08 1.00251e+08 9.96594e+07 9.96572e+07 1.00251e+08 1.0025e+08 9.96575e+07 9.96554e+07 1.00251e+08 1.00249e+08 9.96572e+07 9.96528e+07 1.0025e+08 1.00248e+08 9.96554e+07 9.96512e+07 9.96594e+07 9.96572e+07 9.8825e+07 9.88202e+07 9.96575e+07 9.96554e+07 9.88209e+07 9.88163e+07 9.96572e+07 9.96528e+07 9.88202e+07 9.88105e+07 9.96554e+07 9.96512e+07 9.88163e+07 9.88069e+07 1.00251e+08 1.0025e+08 9.96575e+07 9.96554e+07 1.00249e+08 1.00248e+08 9.96541e+07 9.96513e+07 1.0025e+08 1.00248e+08 9.96554e+07 9.96512e+07 1.00248e+08 1.00246e+08 9.96513e+07 9.96468e+07 9.96575e+07 9.96554e+07 9.88209e+07 9.88163e+07 9.96541e+07 9.96513e+07 9.88135e+07 9.88072e+07 9.96554e+07 9.96512e+07 9.88163e+07 9.88069e+07 9.96513e+07 9.96468e+07 9.88072e+07 9.87969e+07 1.00249e+08 1.00246e+08 9.96528e+07 9.96477e+07 1.00248e+08 1.00245e+08 9.96512e+07 9.96463e+07 1.00246e+08 1.00242e+08 9.96477e+07 9.96389e+07 1.00245e+08 1.00241e+08 9.96463e+07 9.96369e+07 9.96528e+07 9.96477e+07 9.88105e+07 9.87993e+07 9.96512e+07 9.96463e+07 9.88069e+07 9.87962e+07 9.96477e+07 9.96389e+07 9.87993e+07 9.87791e+07 9.96463e+07 9.96369e+07 9.87962e+07 9.87748e+07 1.00248e+08 1.00245e+08 9.96512e+07 9.96463e+07 1.00246e+08 1.00243e+08 9.96468e+07 9.9642e+07 1.00245e+08 1.00241e+08 9.96463e+07 9.96369e+07 1.00243e+08 1.00239e+08 9.9642e+07 9.96322e+07 9.96512e+07 9.96463e+07 9.88069e+07 9.87962e+07 9.96468e+07 9.9642e+07 9.87969e+07 9.87864e+07 9.96463e+07 9.96369e+07 9.87962e+07 9.87748e+07 9.9642e+07 9.96322e+07 9.87864e+07 9.87642e+07 1.00814e+08 1.00814e+08 1.00628e+08 1.00626e+08 1.00814e+08 1.00814e+08 1.00628e+08 1.00626e+08 1.00814e+08 1.00813e+08 1.00626e+08 1.00625e+08 1.00814e+08 1.00813e+08 1.00626e+08 1.00624e+08 1.00628e+08 1.00626e+08 1.00243e+08 1.0024e+08 1.00628e+08 1.00626e+08 1.00243e+08 1.00239e+08 1.00626e+08 1.00625e+08 1.0024e+08 1.00236e+08 1.00626e+08 1.00624e+08 1.00239e+08 1.00235e+08 1.00814e+08 1.00814e+08 1.00628e+08 1.00626e+08 1.00814e+08 1.00813e+08 1.00627e+08 1.00625e+08 1.00814e+08 1.00813e+08 1.00626e+08 1.00624e+08 1.00813e+08 1.00812e+08 1.00625e+08 1.00624e+08 1.00628e+08 1.00626e+08 1.00243e+08 1.00239e+08 1.00627e+08 1.00625e+08 1.00242e+08 1.00238e+08 1.00626e+08 1.00624e+08 1.00239e+08 1.00235e+08 1.00625e+08 1.00624e+08 1.00238e+08 1.00234e+08 1.00813e+08 1.00812e+08 1.00625e+08 1.00623e+08 1.00813e+08 1.00812e+08 1.00624e+08 1.00622e+08 1.00812e+08 1.00811e+08 1.00623e+08 1.00622e+08 1.00812e+08 1.00811e+08 1.00622e+08 1.00621e+08 1.00625e+08 1.00623e+08 1.00236e+08 1.00232e+08 1.00624e+08 1.00622e+08 1.00235e+08 1.00231e+08 1.00623e+08 1.00622e+08 1.00232e+08 1.00229e+08 1.00622e+08 1.00621e+08 1.00231e+08 1.00228e+08 1.00813e+08 1.00812e+08 1.00624e+08 1.00622e+08 1.00812e+08 1.00811e+08 1.00624e+08 1.00622e+08 1.00812e+08 1.00811e+08 1.00622e+08 1.00621e+08 1.00811e+08 1.00811e+08 1.00622e+08 1.00621e+08 1.00624e+08 1.00622e+08 1.00235e+08 1.00231e+08 1.00624e+08 1.00622e+08 1.00234e+08 1.0023e+08 1.00622e+08 1.00621e+08 1.00231e+08 1.00228e+08 1.00622e+08 1.00621e+08 1.0023e+08 1.00227e+08 1.00243e+08 1.0024e+08 9.96406e+